version 2
run General-0-20120622-10:25:30-7500
attr configname General
attr datetime 20120622-10:25:30
attr experiment General
attr inifile omnetpp.ini
attr iterationvars "$v0=2, $v1=2s, $v2=2s, $v3=exponential(2s)"
attr iterationvars2 "$v0=2, $v1=2s, $v2=2s, $v3=exponential(2s), $repetition=0"
attr measurement "$v0=2, $v1=2s, $v2=2s, $v3=exponential(2s)"
attr network ClosedQueueingNetA
attr processid 7500
attr repetition 0
attr replication #0
attr resultdir results
attr runnumber 0
attr seedset 0
attr v0 2
attr v1 2s
attr v2 2s
attr v3 exponential(2s)

vector 0  ClosedQueueingNetA.queue[0]  queueLength  ETV
vector 1  ClosedQueueingNetA.queue[1]  queueLength  ETV
vector 2  ClosedQueueingNetA.queue[2]  queueLength  ETV
vector 3  ClosedQueueingNetA.queue[3]  queueLength  ETV
vector 4  ClosedQueueingNetA.queue[4]  queueLength  ETV
vector 5  ClosedQueueingNetA.queue[5]  queueLength  ETV
0	0	0	1
0	0	0	2
0	0	0	1
0	1	1.591749009131	0
0	113	25.202045751927	1
0	115	25.688220467084	0
0	120	26.380333429242	1
0	129	28.192273147118	0
0	190	41.83131257284	1
0	192	43.22763557137	2
0	205	48.089694220232	3
0	220	51.318498338887	2
0	226	52.927945232917	3
0	230	53.491037100643	2
0	237	55.73066583215	1
0	239	56.716865076487	2
0	240	56.744194233348	3
0	249	59.941308433734	2
0	264	62.629798978038	1
0	267	63.941091546765	0
0	270	64.423683620413	1
0	279	66.274838599862	0
0	314	76.359791272935	1
0	324	78.623645141473	2
0	329	79.060856761665	1
0	330	79.101481679256	0
0	383	88.698987696549	1
0	392	90.790460347042	0
0	403	92.812437727563	1
0	404	93.041024380729	0
0	418	96.227880704015	1
0	433	99.74467517754	2
0	434	99.769765286831	1
0	436	100.48761971857	0
0	441	101.268410720131	1
0	449	102.646260115881	0
0	450	103.098880809704	1
0	452	103.689340155114	2
0	454	103.766182256028	1
0	456	104.057330212923	0
0	497	113.239365281995	1
0	503	115.295564303682	0
0	746	189.212220852256	1
0	747	189.288318049609	0
0	800	205.183444456147	1
0	805	205.969921198656	2
0	806	206.455358185999	3
0	807	206.736558830664	2
0	811	207.509671022997	3
0	815	208.012936041849	2
0	819	209.118612783152	1
0	827	210.364271402681	0
0	839	213.563836438377	1
0	840	213.660423749002	0
0	902	227.01747249459	1
0	903	227.078132183382	0
0	927	233.755971052743	1
0	930	234.379520159001	0
0	975	250.690355149045	1
0	978	251.098183819438	0
0	1047	267.16169642815	1
0	1050	267.766125465396	0
0	1081	275.531550825388	1
0	1083	275.739602439598	0
0	1104	281.641270383402	1
0	1115	283.90402791861	2
0	1121	284.706257811021	1
0	1124	284.995343348144	2
0	1127	285.424180447774	1
0	1132	286.625380009936	2
0	1133	286.642309358421	1
0	1147	289.02130186109	0
0	1207	299.746997306	1
0	1209	300.167068794816	0
0	1226	303.722592784844	1
0	1229	304.507519872312	0
0	1311	324.347457846255	1
0	1312	324.656764773181	0
0	1314	324.920740470408	1
0	1318	325.882255662908	0
0	1391	348.693484149134	1
0	1394	348.997381615322	0
0	1399	350.190889094525	1
0	1401	350.534306770104	0
0	1406	351.364426707885	1
0	1407	351.397353275854	2
0	1408	352.41331074183	1
0	1410	352.606393299885	0
0	1440	359.902386723799	1
0	1443	360.934056126108	0
0	1479	368.589504890119	1
0	1482	370.819725474151	0
0	1504	376.626230353843	1
0	1516	379.91537317787	0
0	1520	381.058429969358	1
0	1522	381.285816904667	2
0	1523	381.533332568135	1
0	1534	384.007367646941	2
0	1538	384.9915718435	1
0	1539	385.037291270708	2
0	1540	385.08577038561	1
0	1541	385.12402122547	2
0	1552	387.769809867975	1
0	1564	391.14424644549	0
0	1595	401.075553471497	1
0	1612	405.822926557903	0
0	1694	427.503727965958	1
0	1704	429.696608666497	2
0	1705	429.73264442939	3
0	1710	430.64728800578	4
0	1711	431.612438436101	5
0	1719	433.261493478402	4
0	1722	434.305716087223	3
0	1729	436.351166242432	4
0	1732	436.836657117151	5
0	1738	439.602610383556	6
0	1740	439.649389820738	7
0	1742	441.744532709021	6
0	1745	442.487764218676	5
0	1747	443.421492905802	4
0	1750	443.99443513444	5
0	1758	446.460612588874	6
0	1763	447.926478645944	5
0	1771	451.892103806491	4
0	1774	452.692866869409	3
0	1788	456.340879387939	4
0	1790	457.093525510297	3
0	1795	458.603949145817	2
0	1798	459.499870707101	3
0	1806	462.194768354482	4
0	1809	463.071228848014	3
0	1812	463.708014880125	2
0	1818	465.27712827396	1
0	1819	465.338531819982	0
0	1824	466.712070877866	1
0	1830	467.35455890095	0
0	1900	481.836581848884	1
0	1909	485.280236114286	0
0	1956	495.600160601886	1
0	1978	499.776814155302	2
0	1988	502.799598547378	3
0	1992	503.292509005394	2
0	1995	503.676700157691	1
0	2000	504.662457694424	0
0	2099	525.416832662412	1
0	2105	526.918684534635	0
0	2110	528.427602080717	1
0	2111	528.787845367332	0
0	2113	529.121459847026	1
0	2115	529.803341229036	2
0	2116	530.250539345705	3
0	2119	530.792970183988	2
0	2122	532.238174659058	1
0	2126	533.15567726435	0
0	2179	546.989412162406	1
0	2182	547.811561847368	0
0	2300	575.232996314208	1
0	2303	575.865470525892	2
0	2315	579.71230774733	3
0	2327	582.186202016213	2
0	2339	584.638210769315	3
0	2347	586.072603128866	2
0	2353	587.824331101555	3
0	2355	588.036172940065	2
0	2365	590.627928573062	1
0	2380	593.544854758839	2
0	2383	594.211237244835	1
0	2393	595.724945879287	0
0	2496	619.976721064894	1
0	2503	621.118921143524	0
0	2534	628.263622642397	1
0	2541	630.648891119195	0
0	2583	642.530857690312	1
0	2586	642.648112277797	0
0	2648	660.332689101361	1
0	2651	660.812517573388	0
0	2655	661.106045502652	1
0	2656	661.172955020905	2
0	2660	662.629835049256	3
0	2663	662.876358979221	2
0	2665	662.897050372709	3
0	2672	665.856857152578	2
0	2685	670.901815969251	3
0	2699	675.48625315204	2
0	2703	676.786370187672	3
0	2708	678.140335307529	4
0	2714	679.688479392892	5
0	2717	680.607840981575	4
0	2731	684.326654126412	3
0	2733	685.086077652322	4
0	2735	685.845056682639	5
0	2739	687.734517335248	4
0	2764	695.146498609891	3
0	2781	699.552061862968	4
0	2783	700.505404708486	5
0	2784	700.622545200437	4
0	2791	702.863263365948	3
0	2792	702.913392541054	2
0	2793	702.995021541755	1
0	2794	703.010014230652	0
0	2866	718.424057748865	1
0	2867	718.542186858728	2
0	2869	718.745129381293	1
0	2872	718.876455751646	0
0	2932	734.874411394149	1
0	2933	734.926599324074	2
0	2938	735.767732484582	1
0	2941	735.994541928966	0
0	2983	747.116201048344	1
0	2993	749.54392217447	2
0	3001	751.142902524881	1
0	3004	751.690032249379	0
0	3072	764.314035861075	1
0	3087	767.000133411544	2
0	3088	767.541256299994	3
0	3097	769.995213988737	4
0	3098	770.869792289334	3
0	3102	771.599408106206	4
0	3107	775.087127253104	3
0	3112	776.251489359377	2
0	3116	777.44124187116	1
0	3123	779.119188437017	0
0	3173	792.818388861115	1
0	3179	794.200377035237	0
0	3231	806.387061350026	1
0	3236	808.58394825395	0
0	3247	810.668751862588	1
0	3248	810.918118253175	0
0	3351	844.224455568643	1
0	3353	844.384072685555	0
0	3368	848.107621110019	1
0	3384	851.109150678902	0
0	3393	853.756017678894	1
0	3399	855.766602453262	0
0	3401	856.08761398793	1
0	3413	858.600489231542	2
0	3414	858.885705016709	1
0	3417	859.611015042791	0
0	3484	872.87545056344	1
0	3486	873.183933091596	0
0	3492	873.655115056475	1
0	3494	874.333925298288	2
0	3500	875.44501315185	1
0	3505	875.609153463747	2
0	3507	877.023357483365	1
0	3514	878.730420824058	0
0	3519	879.565187080962	1
0	3521	879.641123298322	0
0	3585	897.396458609296	1
0	3592	900.704772427707	0
0	3677	920.624656607447	1
0	3682	921.794222957389	2
0	3690	923.732421646337	1
0	3691	923.994147517894	0
0	3696	925.014689855808	1
0	3706	926.505685241492	0
0	3747	936.280300617138	1
0	3749	936.61011412902	2
0	3750	936.679683027237	1
0	3752	936.950698682516	0
0	3755	938.076999862641	1
0	3762	939.090627318206	0
0	3845	957.740261288129	1
0	3847	957.856201100316	0
0	3860	961.142475569585	1
0	3861	961.666452542981	2
0	3862	961.844286912996	3
0	3868	964.363773046772	2
0	3874	965.642659033567	1
0	3880	966.969954384032	0
0	3892	970.142077012666	1
0	3894	970.595366449533	2
0	3895	970.718465835357	1
0	3897	970.83451269768	0
0	3915	975.090590474491	1
0	3935	983.112517123146	0
0	4009	1002.34570856157	1
0	4017	1003.336268926183	0
0	4019	1003.437304916327	1
0	4030	1005.346441371848	0
0	4031	1005.431799937604	1
0	4047	1010.050660959445	2
0	4049	1010.7302793205	1
0	4051	1010.854743754955	0
0	4180	1045.787405127089	1
0	4187	1046.428246728767	0
0	4245	1059.378127459095	1
0	4247	1059.462230866541	2
0	4248	1059.484027221359	1
0	4249	1059.526398507601	2
0	4251	1059.805254437261	1
0	4260	1061.594569198083	2
0	4266	1062.773149371314	1
0	4273	1064.69384391303	2
0	4281	1066.703057560905	3
0	4282	1066.704441140003	4
0	4293	1072.603888363512	3
0	4304	1076.088369688502	4
0	4309	1076.789321406163	3
0	4313	1078.185562533844	4
0	4317	1078.59670215145	5
0	4320	1079.206895183607	4
0	4323	1080.234181655455	3
0	4325	1080.413581675603	2
0	4326	1080.543061665004	1
0	4328	1080.83449327763	2
0	4338	1082.540877204824	1
0	4344	1083.505856408446	2
0	4347	1084.421719880439	1
0	4350	1085.246218628379	0
0	4372	1091.920737862264	1
0	4374	1092.106211551662	0
0	4417	1106.409844850999	1
0	4433	1113.849439213218	0
0	4437	1114.829109826669	1
0	4440	1114.973665737026	0
0	4472	1123.437855477794	1
0	4474	1123.563203329399	0
0	4483	1125.373305554039	1
0	4487	1125.811838520613	0
0	4490	1126.08851677111	1
0	4493	1126.270693563684	0
0	4504	1128.317478985768	1
0	4509	1128.790333514599	0
0	4549	1139.338619046696	1
0	4557	1142.112957617753	2
0	4567	1144.224941547299	3
0	4575	1146.167202506486	2
0	4585	1148.655892662186	1
0	4594	1150.345803148041	0
0	4636	1159.684067225481	1
0	4639	1160.300452131649	2
0	4642	1161.135114808352	1
0	4656	1166.025339200492	0
0	4704	1177.968524332844	1
0	4705	1178.155384971118	2
0	4708	1179.451243004985	1
0	4714	1180.51936403027	0
0	4761	1189.876448163069	1
0	4763	1190.29675055107	2
0	4765	1190.502277558084	3
0	4769	1191.36763677032	2
0	4772	1192.460717718667	3
0	4776	1193.412204023034	4
0	4778	1194.058959145323	3
0	4786	1197.250945189943	2
0	4800	1200.233186622318	1
0	4803	1201.399486870604	2
0	4811	1203.056716425944	1
0	4812	1203.401467228008	2
0	4815	1204.508568405158	1
0	4840	1209.490062944016	0
0	5051	1266.465650375363	1
0	5056	1267.548903446708	0
0	5072	1271.093002622102	1
0	5087	1274.778854291257	2
0	5088	1274.913117417927	1
0	5093	1275.862729908595	2
0	5111	1280.826608327506	3
0	5112	1280.879535349712	2
0	5118	1283.991474898016	1
0	5121	1284.713065123277	0
0	5168	1295.457188225082	1
0	5170	1295.882207092465	0
0	5192	1300.024474630599	1
0	5196	1301.006640111286	2
0	5211	1304.388309064797	3
0	5216	1306.081212244352	2
0	5218	1306.663433597329	1
0	5219	1307.094039215403	2
0	5226	1309.20557651951	1
0	5227	1309.635985049288	0
0	5228	1309.678387403486	1
0	5229	1309.904665164771	0
0	5317	1331.351096309154	1
0	5322	1332.953974645767	2
0	5325	1333.233379550082	1
0	5327	1333.71725754173	2
0	5334	1336.177468108223	1
0	5336	1337.22013678927	2
0	5338	1337.811641749644	1
0	5341	1338.930198231995	0
0	5391	1353.839241168016	1
0	5395	1354.719142173361	0
0	5399	1355.564196882871	1
0	5402	1356.03100855035	0
0	5414	1357.759270804984	1
0	5416	1358.190591045395	2
0	5419	1358.416494768329	3
0	5421	1358.982621702219	2
0	5427	1360.521454894927	3
0	5434	1362.741282533631	2
0	5444	1365.616665989014	1
0	5448	1367.624961389977	0
0	5506	1380.277786832612	1
0	5510	1380.648971656396	0
0	5515	1381.420148603362	1
0	5522	1383.345004407763	0
0	5525	1384.033353869291	1
0	5539	1386.787196582135	2
0	5541	1387.228785414677	1
0	5542	1387.287809575369	0
0	5604	1401.600814557598	1
0	5607	1402.67717634075	0
0	5613	1405.033993073767	1
0	5615	1405.762448468038	2
0	5630	1410.567191776344	1
0	5632	1411.494042231028	2
0	5634	1411.647471142121	1
0	5640	1412.613458766626	0
0	5729	1432.993344219433	1
0	5733	1433.220551134122	0
0	5738	1433.940856154101	1
0	5740	1434.293266262535	0
0	5792	1448.027747335952	1
0	5794	1448.039093008285	0
0	5833	1456.773791719437	1
0	5836	1456.973705188294	2
0	5843	1458.916899228974	3
0	5846	1459.902374923394	2
0	5850	1460.91525960217	3
0	5851	1461.279603710547	4
0	5855	1463.272693733534	3
0	5857	1464.624802214546	2
0	5864	1466.400561144912	1
0	5865	1466.502004190777	0
0	5871	1467.297647919442	1
0	5872	1467.63066040224	0
0	5917	1474.966301138397	1
0	5918	1475.215174029282	2
0	5948	1481.317574924604	1
0	5949	1481.384575668163	0
0	5951	1481.609294810674	1
0	5952	1481.959414428641	0
0	5988	1489.34757797474	1
0	5990	1489.470790648361	0
0	6086	1510.438457102094	1
0	6087	1510.589098760742	0
0	6135	1522.544639040582	1
0	6138	1523.175368752496	2
0	6141	1523.646149380757	3
0	6143	1524.556521588876	2
0	6146	1525.09054754491	3
0	6148	1525.785513326154	2
0	6152	1527.286089120033	3
0	6156	1528.177459089047	2
0	6174	1531.600017211117	3
0	6176	1532.238634427625	4
0	6179	1532.540523595788	3
0	6180	1532.676182767298	4
0	6183	1533.133478130725	3
0	6186	1534.480788799737	4
0	6192	1536.106439359417	3
0	6197	1537.373874044578	2
0	6198	1537.766392818434	1
0	6205	1538.477969088111	0
0	6245	1547.134184713458	1
0	6247	1547.284925458715	2
0	6249	1548.65303266441	3
0	6259	1551.137832557789	4
0	6264	1552.194694440853	3
0	6267	1553.051125738432	4
0	6277	1556.422053824759	3
0	6278	1557.005464291364	4
0	6284	1559.184446992913	3
0	6302	1563.818167108691	4
0	6307	1565.078878540936	3
0	6312	1566.739268175423	4
0	6317	1568.029470308756	3
0	6318	1568.087016170742	2
0	6323	1569.78437297843	3
0	6325	1569.878885366344	2
0	6333	1572.179682716865	1
0	6337	1573.636122377579	2
0	6344	1577.783562650183	3
0	6345	1578.425076226602	2
0	6349	1580.29674641321	1
0	6366	1585.384612521836	2
0	6373	1587.248751164616	3
0	6375	1587.65088712771	2
0	6384	1590.375557106898	1
0	6385	1590.595581554634	2
0	6390	1591.997899427707	1
0	6396	1593.42377728447	0
0	6596	1640.048178035372	1
0	6599	1640.269670709373	2
0	6601	1640.512227019686	3
0	6604	1641.370843960752	4
0	6611	1642.661208803706	3
0	6616	1644.387565942216	4
0	6618	1644.641807669528	5
0	6628	1648.977172014734	4
0	6630	1649.091175744549	3
0	6637	1651.624195466863	2
0	6639	1652.34064368829	3
0	6644	1654.162135037445	2
0	6655	1656.909553298916	1
0	6658	1657.356286260297	2
0	6662	1658.503986280827	1
0	6674	1661.155935751549	2
0	6676	1661.743130457309	3
0	6681	1663.629661159141	2
0	6686	1665.01927101013	1
0	6689	1665.690705840328	0
0	6735	1673.467071992441	1
0	6736	1673.770357983711	0
0	6753	1676.948289708309	1
0	6762	1678.55861298147	2
0	6770	1680.363965743835	3
0	6771	1680.583375524424	4
0	6778	1681.943436302921	3
0	6779	1682.067994675178	2
0	6782	1683.488141808675	3
0	6789	1685.815390523713	4
0	6791	1686.581161735428	3
0	6794	1687.505852561732	2
0	6796	1687.840189176365	1
0	6797	1688.097325275077	0
0	6858	1702.405997125885	1
0	6860	1702.980552225017	0
0	6924	1724.222465438967	1
0	6925	1724.936990580226	2
0	6931	1727.497435439885	3
0	6932	1727.53572736328	2
0	6940	1730.006198682652	1
0	6943	1730.843987439928	0
0	6949	1732.184200434344	1
0	6950	1732.296829357806	0
0	7016	1750.40551467911	1
0	7028	1752.833708004621	0
0	7045	1755.060633877056	1
0	7052	1756.070661646778	0
0	7103	1768.422941520978	1
0	7113	1770.268668708358	0
0	7141	1778.010926765387	1
0	7143	1779.019900147175	2
0	7145	1779.535668629121	1
0	7148	1780.081226225944	0
0	7150	1780.862223781834	1
0	7154	1782.064956037587	0
0	7223	1799.839808283964	1
0	7224	1799.906496126804	0
0	7240	1803.037010746216	1
0	7246	1804.276169097579	0
0	7281	1810.480582089061	1
0	7283	1810.862890465952	2
0	7290	1812.734828148381	3
0	7293	1813.208428985384	2
0	7294	1813.271431544647	3
0	7298	1813.908415947233	2
0	7306	1816.352056696869	1
0	7308	1816.876331329549	0
0	7311	1817.33240788302	1
0	7312	1817.376639265426	0
0	7313	1817.552237587909	1
0	7315	1817.785132059833	0
0	7330	1820.460078583477	1
0	7343	1823.709601530144	0
0	7346	1824.00139567384	1
0	7354	1826.232770113344	0
0	7358	1827.224208080766	1
0	7364	1828.513954090831	0
0	7382	1832.361912573591	1
0	7388	1833.971935222554	2
0	7393	1835.333781708864	1
0	7399	1836.869018830839	0
0	7404	1837.782793587753	1
0	7416	1840.303757407473	0
0	7459	1854.427741691358	1
0	7477	1859.092977935706	0
0	7533	1873.786444265194	1
0	7535	1874.138296405229	2
0	7537	1875.085337835198	3
0	7545	1879.458518743438	2
0	7548	1880.051688608488	1
0	7551	1880.702969832317	0
0	7753	1932.498839945358	1
0	7755	1932.623428003438	0
0	7758	1933.046074219995	1
0	7766	1935.070365360931	2
0	7768	1935.758616678625	1
0	7769	1935.779901005609	0
0	7834	1950.848133091763	1
0	7839	1951.581730715651	0
0	7853	1954.916551452754	1
0	7854	1955.103730044315	0
0	7855	1956.229886616451	1
0	7862	1958.365157163621	0
0	7922	1977.744396874583	1
0	7928	1979.309693845435	2
0	7933	1980.763333178393	3
0	7952	1984.342180327947	2
0	7962	1987.272201513134	3
0	7963	1987.402871890153	2
0	7967	1988.578559743291	3
0	7973	1990.840643888157	2
0	7976	1991.77731179898	3
0	7982	1993.165997218572	2
0	7987	1994.627140502671	1
0	7988	1994.841029044048	2
0	7995	1996.659830060079	1
0	8015	2001.296503503279	0
0	8016	2001.92015566831	1
0	8019	2002.141834414105	0
0	8048	2008.63922362277	1
0	8049	2008.764846113513	0
0	8053	2009.737698541104	1
0	8061	2010.990841930113	0
0	8071	2013.07009053483	1
0	8074	2014.167863886459	2
0	8080	2015.545326473485	1
0	8081	2016.013863246008	2
0	8085	2017.099502022815	3
0	8091	2017.996201515814	2
0	8094	2018.985549786888	1
0	8105	2021.400186692856	2
0	8107	2021.590939604734	3
0	8108	2021.627511609732	2
0	8109	2022.186782853806	1
0	8115	2023.474635028075	0
0	8172	2040.884932291448	1
0	8174	2041.41951479408	2
0	8176	2042.241925249136	3
0	8178	2042.779811843931	4
0	8188	2049.214923484785	3
0	8200	2052.101007899102	4
0	8207	2053.436459203086	5
0	8212	2054.529108089838	4
0	8213	2054.530915474606	3
0	8220	2055.929684980563	4
0	8234	2059.860823161527	3
0	8237	2060.64475504798	2
0	8238	2060.705825223337	3
0	8240	2060.861606448882	2
0	8244	2061.948153950197	1
0	8248	2062.463439719594	0
0	8252	2063.263059834817	1
0	8259	2065.339291986883	0
0	8262	2066.395940817041	1
0	8270	2067.953411699759	0
0	8319	2080.819830499391	1
0	8324	2081.885096483616	0
0	8340	2084.539665536127	1
0	8341	2084.864252264511	0
0	8361	2087.852252524954	1
0	8363	2088.116005705554	0
0	8370	2089.918477803573	1
0	8373	2090.531869813796	2
0	8378	2091.182066063999	1
0	8381	2091.713170870887	0
0	8429	2101.981216994029	1
0	8436	2103.538687104428	0
0	8465	2108.499318575814	1
0	8466	2108.570011567991	0
0	8471	2109.63532075711	1
0	8472	2109.696270048119	2
0	8473	2110.074759758396	3
0	8474	2110.265878887175	4
0	8488	2115.636732067989	5
0	8489	2115.807013834104	6
0	8493	2116.266476370178	5
0	8502	2118.692716730462	6
0	8503	2119.194487339968	5
0	8509	2120.784727482543	4
0	8512	2121.673747284242	3
0	8519	2124.34952190282	2
0	8530	2127.311101263731	3
0	8534	2128.154130691941	2
0	8538	2129.480939624851	1
0	8556	2134.771409471616	0
0	8627	2150.037128083021	1
0	8632	2150.257514598765	0
0	8649	2155.524062104984	1
0	8663	2160.460044801008	0
0	8693	2165.717175327649	1
0	8694	2165.75155048783	2
0	8701	2167.320533870624	3
0	8703	2168.336994151126	2
0	8705	2168.752150465551	3
0	8708	2170.177759786374	2
0	8709	2170.266229312017	1
0	8711	2170.364560206718	2
0	8717	2172.173047578258	3
0	8722	2173.051120166878	4
0	8726	2174.525085031086	3
0	8727	2174.646564904723	4
0	8732	2175.423457371219	5
0	8739	2176.948686061809	4
0	8743	2177.56736139578	3
0	8753	2180.434435617036	4
0	8755	2181.15036883217	5
0	8756	2181.379325530663	4
0	8759	2182.094268063426	3
0	8764	2182.697144794375	2
0	8765	2183.009985511143	3
0	8771	2184.180718172634	4
0	8778	2185.89757006778	3
0	8780	2186.194521219832	2
0	8781	2186.20762711223	3
0	8783	2186.54275573723	4
0	8790	2188.420412825139	5
0	8791	2189.09592072394	6
0	8793	2190.25518663525	5
0	8800	2192.343026659815	6
0	8812	2196.528467857181	5
0	8817	2197.280534427262	4
0	8829	2201.011226512775	5
0	8836	2203.182178034181	4
0	8840	2204.305452941369	3
0	8846	2205.918272650788	2
0	8848	2206.342685309519	1
0	8855	2208.19550346881	0
0	8892	2215.789022550262	1
0	8899	2217.477787170822	0
0	8929	2224.12298883331	1
0	8937	2226.711466866354	2
0	8939	2227.015081405119	1
0	8941	2227.589929085822	2
0	8943	2228.509534783377	1
0	8944	2228.625098642361	2
0	8948	2229.782056078687	1
0	8949	2229.811604943946	0
0	8996	2240.664199609951	1
0	9007	2242.555629790229	2
0	9009	2243.076274262476	3
0	9020	2246.569676182086	2
0	9023	2247.060380627494	1
0	9025	2247.820859781883	2
0	9027	2248.738755774799	3
0	9032	2250.350006065865	2
0	9053	2256.073788517739	1
0	9054	2256.667748692718	0
0	9094	2263.451353709229	1
0	9096	2263.887504438818	2
0	9098	2264.559470069282	1
0	9109	2266.691877158763	2
0	9113	2267.528009803548	1
0	9118	2269.321083306847	2
0	9128	2271.491424065115	1
0	9137	2273.648686193988	2
0	9139	2274.093569737692	3
0	9152	2278.202896583992	2
0	9153	2278.431787986235	3
0	9160	2279.416484280333	2
0	9161	2279.445390468118	1
0	9162	2279.462354491485	0
0	9231	2296.65128661997	1
0	9235	2297.977282984698	2
0	9239	2299.59681567807	1
0	9245	2301.653166234334	0
0	9251	2303.351633475632	1
0	9252	2303.408708207752	0
0	9342	2333.927041933393	1
0	9343	2333.94491571123	0
0	9408	2348.268816551532	1
0	9421	2351.460074188391	2
0	9422	2351.513981282893	1
0	9423	2351.567682346123	0
0	9425	2351.975506858919	1
0	9427	2352.708241042921	0
0	9516	2377.038212360164	1
0	9518	2377.366093537099	0
0	9571	2387.6739559222	1
0	9580	2389.896192801142	2
0	9581	2390.111085168063	3
0	9582	2390.143615866103	2
0	9584	2390.34212376822	1
0	9587	2391.073466064397	0
0	9589	2391.374141626822	1
0	9592	2392.193458653587	2
0	9603	2394.689458191219	1
0	9606	2395.366062612105	0
0	9608	2395.483295223435	1
0	9611	2395.761745761247	0
0	9700	2416.508569211063	1
0	9701	2416.603392767366	0
0	9741	2426.105900875726	1
0	9743	2426.438046055686	0
0	9747	2427.966815103903	1
0	9755	2430.377108106538	2
0	9756	2430.673469816466	3
0	9757	2430.842987791383	2
0	9767	2433.645236068719	1
0	9769	2433.865071018324	0
0	9850	2454.952477801647	1
0	9855	2455.909774015064	2
0	9865	2458.204484590505	3
0	9870	2459.099351684849	4
0	9872	2459.473044975711	3
0	9883	2462.625624845697	2
0	9890	2464.039462999034	1
0	9903	2466.98700636101	0
0	9932	2472.791523696064	1
0	9933	2472.885999457815	2
0	9936	2473.101969741995	1
0	9938	2473.49429761745	2
0	9945	2475.519980344057	1
0	9954	2478.806738646823	2
0	9957	2479.44849035514	1
0	9960	2480.727490862402	0
0	9961	2480.875726927061	1
0	9967	2481.751334690548	0
0	9990	2487.475759824175	1
0	10009	2494.830604358271	0
0	10019	2496.634306989909	1
0	10031	2498.709332524778	0
0	10037	2499.173224890971	1
0	10046	2500.863512205174	0
0	10081	2506.849674601551	1
0	10089	2507.776821377384	0
0	10100	2511.515756026258	1
0	10107	2514.659670134327	2
0	10110	2516.231230108622	1
0	10116	2516.900030535929	0
0	10117	2517.701797705437	1
0	10125	2519.428082914829	0
0	10176	2534.773558617679	1
0	10177	2534.793920847022	0
0	10226	2546.24255708763	1
0	10231	2547.800555579474	0
0	10233	2548.408453751491	1
0	10240	2549.463752747384	0
0	10243	2550.541705827529	1
0	10244	2550.639503484032	0
0	10306	2566.576222494583	1
0	10307	2566.933226026537	0
0	10392	2591.835995012205	1
0	10396	2592.323679383515	0
0	10478	2608.498011897947	1
0	10479	2609.142766697042	0
0	10483	2610.011954246143	1
0	10490	2612.399630304651	0
0	10537	2620.784874737772	1
0	10542	2621.217731148158	0
0	10551	2622.849022687484	1
0	10564	2624.939709705196	0
0	10566	2625.257895537405	1
0	10570	2626.822883328966	0
0	10595	2633.603717054825	1
0	10602	2635.193018579648	2
0	10613	2637.634568926661	1
0	10622	2639.472961734779	0
0	10624	2639.979709940837	1
0	10627	2640.615842348462	2
0	10640	2642.906850855892	3
0	10643	2643.614020324091	2
0	10645	2644.260691625968	1
0	10646	2644.302793411449	2
0	10651	2644.864382478394	1
0	10652	2645.509374619473	0
0	10685	2654.353146364037	1
0	10693	2657.339898897663	0
0	10696	2658.117863424022	1
0	10707	2660.597133482014	0
0	10719	2662.892574793999	1
0	10723	2664.243740110781	0
0	10749	2669.597745508497	1
0	10751	2669.731425973665	0
0	10757	2671.020616762656	1
0	10767	2675.284385381106	0
0	10775	2677.747072653664	1
0	10781	2678.973731513746	2
0	10788	2680.605881305738	1
0	10790	2680.792819277927	2
0	10795	2681.502620621348	1
0	10797	2681.979821668881	2
0	10801	2682.8932251744	1
0	10804	2683.356622129758	2
0	10809	2684.251780222234	1
0	10812	2685.05544954912	0
0	10997	2726.659905330619	1
0	11000	2728.191200073599	0
0	11047	2739.218731754866	1
0	11059	2742.275883629409	0
0	11145	2764.311802573193	1
0	11148	2764.777790227994	0
0	11150	2766.397069950359	1
0	11151	2766.448418785721	0
0	11179	2773.279552889021	1
0	11182	2774.277001576413	2
0	11192	2777.497148884794	3
0	11197	2778.756756435166	2
0	11200	2779.507890574263	3
0	11210	2781.92953001789	2
0	11211	2781.930945679103	3
0	11212	2782.400772138918	2
0	11214	2782.68216942696	1
0	11215	2783.265183607924	2
0	11226	2785.090040141294	1
0	11230	2786.229431616238	0
0	11248	2789.385720941435	1
0	11255	2790.539524733264	0
0	11308	2798.77639249564	1
0	11317	2801.631086849943	2
0	11320	2802.644977281876	3
0	11326	2803.530291224322	2
0	11329	2805.005301109225	1
0	11337	2805.613624519485	0
0	11348	2809.320158462717	1
0	11349	2811.010009388524	0
0	11370	2819.316183200342	1
0	11377	2821.689336971562	0
0	11425	2834.408664370357	1
0	11432	2839.942205310684	0
0	11445	2843.16390059707	1
0	11453	2845.702181988596	0
0	11455	2845.900196949271	1
0	11456	2846.065487115154	2
0	11463	2847.818325979184	3
0	11467	2848.681641454941	2
0	11477	2851.359556995642	1
0	11480	2851.852621572334	2
0	11483	2852.263602928755	1
0	11489	2853.229342043372	0
0	11492	2853.775287839844	1
0	11496	2854.783836129213	2
0	11503	2855.995780728376	3
0	11505	2856.9705199114	4
0	11509	2858.286646312355	3
0	11511	2859.453902508479	2
0	11512	2859.457830652786	1
0	11517	2861.240383710248	0
0	11521	2861.962823261134	1
0	11530	2866.247528963633	2
0	11532	2867.250535663457	1
0	11533	2867.304704895787	0
0	11536	2868.011003106718	1
0	11547	2870.889865629882	2
0	11550	2871.586120947863	3
0	11553	2872.472088017803	2
0	11554	2872.907507979628	3
0	11555	2873.463187383158	4
0	11558	2874.281141039287	3
0	11560	2875.441956791821	2
0	11564	2875.910433097893	1
0	11574	2878.835584704856	0
0	11591	2882.695112790595	1
0	11605	2886.519297318362	2
0	11606	2886.562442120234	3
0	11609	2887.60504778907	4
0	11613	2888.575638015331	3
0	11614	2889.048733054782	2
0	11615	2890.081037080981	1
0	11620	2890.911002640705	0
0	11699	2913.54558515922	1
0	11700	2914.046849166232	0
0	11745	2928.508851748708	1
0	11747	2929.075447980269	0
0	11771	2933.919088120339	1
0	11775	2934.584365033372	0
0	11833	2948.598332603987	1
0	11836	2949.068907047844	2
0	11839	2950.302239574085	1
0	11841	2951.042569946811	2
0	11845	2952.539427365529	1
0	11849	2953.193044717433	2
0	11851	2953.814160665928	1
0	11856	2954.721971862088	0
0	12035	2992.124624332838	1
0	12038	2992.922156046351	0
0	12079	2999.502767748383	1
0	12080	2999.825622300368	0
0	12082	3000.458191810815	1
0	12088	3001.46326115074	0
0	12090	3002.477237604209	1
0	12098	3005.004424302445	0
0	12099	3005.111047136669	1
0	12107	3007.324002027302	0
0	12122	3011.293619479996	1
0	12127	3012.263402955552	0
0	12129	3012.614920264026	1
0	12131	3013.489963874796	0
0	12133	3013.547173835838	1
0	12137	3014.74164965596	0
0	12188	3026.825598264098	1
0	12190	3027.580980402643	0
0	12217	3035.687726632284	1
0	12221	3036.354152977183	2
0	12223	3036.808172938104	3
0	12225	3037.206460311549	2
0	12230	3038.117442332495	1
0	12232	3038.920702575086	2
0	12237	3039.566921425834	1
0	12241	3041.126364211371	0
0	12246	3042.232955208787	1
0	12248	3043.150952510013	2
0	12252	3044.579245135595	1
0	12253	3044.673903046358	0
0	12340	3069.680598447403	1
0	12341	3069.751537387478	0
0	12377	3075.437715335381	1
0	12378	3075.451746635558	0
0	12393	3078.685029104989	1
0	12394	3078.725958020729	0
0	12484	3098.110290172277	1
0	12486	3098.723664045276	0
0	12535	3110.723068469317	1
0	12539	3111.670696988462	2
0	12552	3114.820956257461	3
0	12556	3116.034680485711	2
0	12562	3118.344139367708	1
0	12563	3118.516662589836	0
0	12565	3118.917576654943	1
0	12566	3119.066462583252	0
0	12597	3125.570335987716	1
0	12607	3128.731426808226	0
0	12713	3149.945654408003	1
0	12714	3150.053006611396	0
0	12800	3170.251208709585	1
0	12803	3170.51835576374	2
0	12810	3172.22804995266	1
0	12814	3172.966887686521	0
0	12821	3174.470031097921	1
0	12826	3176.001538121047	0
0	12827	3176.123956848425	1
0	12835	3177.466735165412	0
0	12866	3183.548229332732	1
0	12872	3184.925894549887	2
0	12875	3185.211818496466	1
0	12878	3186.155083878947	0
0	12933	3195.312637016507	1
0	12938	3196.321085137055	0
0	13072	3225.374149185274	1
0	13079	3227.805625418392	0
0	13084	3228.380614197768	1
0	13088	3229.196794507439	0
0	13102	3233.353648226863	1
0	13108	3234.573025561239	0
0	13121	3238.053951682802	1
0	13126	3239.900001579006	0
0	13128	3239.954536030044	1
0	13131	3240.578035765111	0
0	13254	3272.826099764676	1
0	13264	3276.336218173539	0
0	13286	3282.850412878619	1
0	13288	3284.021240473024	0
0	13309	3289.217760380778	1
0	13316	3290.734242755119	0
0	13319	3291.22417844366	1
0	13321	3291.573612070241	2
0	13323	3292.646896425363	1
0	13328	3293.026332026046	0
0	13358	3302.391971021065	1
0	13371	3304.770088231803	0
0	13377	3306.151958692417	1
0	13381	3307.02497663779	0
0	13385	3307.144278438616	1
0	13390	3308.113336913044	0