file 2081523 1340353533                                         
version 2
run General-0-20120622-10:25:30-7500
attr configname General
attr datetime 20120622-10:25:30
attr experiment General
attr inifile omnetpp.ini
attr iterationvars "$v0=2, $v1=2s, $v2=2s, $v3=exponential(2s)"
attr iterationvars2 "$v0=2, $v1=2s, $v2=2s, $v3=exponential(2s), $repetition=0"
attr measurement "$v0=2, $v1=2s, $v2=2s, $v3=exponential(2s)"
attr network ClosedQueueingNetA
attr processid 7500
attr repetition 0
attr replication #0
attr resultdir results
attr runnumber 0
attr seedset 0
attr v0 2
attr v1 2s
attr v2 2s
attr v3 exponential(2s)

vector 0  ClosedQueueingNetA.queue[0]  queueLength  ETV
vector 1  ClosedQueueingNetA.queue[1]  queueLength  ETV
vector 2  ClosedQueueingNetA.queue[2]  queueLength  ETV
vector 3  ClosedQueueingNetA.queue[3]  queueLength  ETV
vector 4  ClosedQueueingNetA.queue[4]  queueLength  ETV
vector 5  ClosedQueueingNetA.queue[5]  queueLength  ETV
0	923 346588 0 147250 0 35996.998173643918 11620 0 10 16908 44594
1	347511 356827 0 147257 0 36000.159392278482 11959 0 8 17632 46376
2	704338 345702 0 147256 0 35999.454929161044 11586 0 9 17699 49033
3	1050040 347832 0 147253 0 35998.744985557854 11669 0 9 17157 45563
4	1397872 345229 0 147238 0 35992.524231606818 11584 0 8 17090 44992
5	1743101 338422 0 147254 0 35998.987797196457 11351 0 9 16596 44920
